/*--------------------------------*- C++ -*----------------------------------*\
| =========                 |                                                 |
| \\      /  F ield         | OpenFOAM: The Open Source CFD Toolbox           |
|  \\    /   O peration     | Version:  2.1.1                                 |
|   \\  /    A nd           | Web:      www.OpenFOAM.org                      |
|    \\/     M anipulation  |                                                 |
\*---------------------------------------------------------------------------*/
FoamFile
{
    version     2.0;
    format      ascii;
    class       volScalarField;
    location    "1";
    object      T;
}
// * * * * * * * * * * * * * * * * * * * * * * * * * * * * * * * * * * * * * //

dimensions      [0 0 0 0 0 0 0];

internalField   nonuniform List<scalar> 
262144
(
43.2232
43.4238
43.8421
44.5158
45.5116
46.934
48.9307
51.6914
55.4351
60.3858
66.7349
74.5975
83.9688
94.6945
106.462
118.82
131.227
143.113
153.946
163.289
170.832
176.398
179.929
181.464
181.116
179.053
175.501
170.749
165.154
159.134
153.155
147.685
143.146
139.868
138.039
137.699
138.738
140.934
143.992
147.591
151.428
155.245
158.844
162.092
164.911
167.266
169.153
170.577
171.538
172.016
171.964
171.297
169.895
167.617
164.316
159.864
154.183
147.271
139.216
130.206
120.512
110.465
100.418
90.7143
81.6484
73.451
66.2764
60.2045
55.2486
51.3675
48.4785
46.469
45.2078
44.5567
44.3807
44.5591
44.9928
45.6082
46.356
47.2052
48.1356
49.1304
50.1717
51.239
52.311
53.3678
54.3928
55.3722
56.2925
57.1386
57.8922
58.5331
59.0453
59.4252
59.6903
59.8863
60.0876
60.3904
60.8972
61.6953
62.8322
64.295
65.9983
67.7853
69.4472
70.7562
71.5111
71.5824
70.9488
69.7121
68.0856
66.357
64.833
63.7786
63.3662
63.6456
64.5426
65.8864
67.4586
69.0491
70.5053
71.7585
72.8213
73.759
74.6476
75.5326
76.4058
77.2056
77.84
78.2222
78.3042
78.0959
77.6612
77.0914
76.4658
75.8144
75.0981
74.217
73.0459
71.4859
69.5122
67.2014
64.7263
62.3204
60.2231
58.6229
57.617
57.195
57.2509
57.6177
58.1126
58.5819
58.9352
59.1611
59.3215
59.5298
59.9161
60.5914
61.6172
62.9898
64.6387
66.4405
68.2404
69.876
71.1976
72.0829
72.4459
72.2448
71.4873
70.2365
68.6119
66.7829
64.9519
63.3302
62.1085
61.4317
61.3817
61.9735
63.1638
64.868
66.9805
69.3932
72.0084
74.7445
77.5364
80.3325
83.0907
85.7753
88.3561
90.8085
93.1147
95.2642
97.2537
99.0856
100.766
102.304
103.708
104.987
106.148
107.201
108.153
109.015
109.799
110.519
111.19
111.823
112.43
113.017
113.584
114.129
114.642
115.116
115.541
115.912
116.229
116.498
116.729
116.935
117.13
117.327
117.535
117.761
118.009
118.279
118.568
118.872
119.187
119.504
119.817
120.117
120.397
120.651
120.879
121.081
121.268
121.452
121.65
121.879
122.152
122.478
122.855
123.276
123.723
124.171
124.594
124.967
125.271
125.495
125.643
125.727
125.771
125.803
125.854
125.948
126.103
126.323
126.607
126.944
127.322
127.725
128.14
128.558
128.972
129.381
129.787
130.192
130.603
131.026
131.463
131.916
132.38
132.845
133.301
133.733
134.127
134.473
134.762
134.994
135.172
135.305
135.407
135.492
135.576
135.673
135.793
135.941
136.118
136.322
136.548
136.794
137.056
137.332
137.623
137.925
138.233
138.537
138.827
139.091
139.318
139.503
139.643
139.743
139.811
139.858
139.897
139.941
139.999
140.083
140.203
140.365
140.579
140.849
141.18
141.573
142.027
142.538
143.099
143.701
144.331
144.981
145.641
146.309
146.987
147.683
148.408
149.174
149.987
150.851
151.76
152.706
153.673
154.647
155.617
156.58
157.536
158.498
159.478
160.496
161.565
162.698
163.903
165.184
166.541
167.971
169.471
171.034
172.651
174.308
175.99
177.681
179.362
181.017
182.632
184.198
185.707
187.159
188.554
189.897
191.194
192.452
193.677
194.873
196.042
197.182
198.287
199.348
200.352
201.277
202.092
202.749
203.161
203.233
202.831
201.775
199.856
196.85
192.555
186.826
179.621
171.038
161.329
150.887
140.205
129.809
120.186
111.722
104.661
99.0942
94.9778
92.1716
90.4809
89.6967
89.6244
90.0998
90.9932
92.2058
93.6625
95.3046
97.0833
98.9565
100.886
102.837
104.774
106.663
108.467
110.146
111.657
112.959
114.015
114.799
115.3
115.525
115.505
115.287
114.931
114.509
114.092
113.743
113.516
113.448
113.555
113.831
114.246
114.747
115.26
115.7
115.973
115.986
115.659
114.928
113.757
112.14
110.098
107.686
104.981
102.079
99.0843
96.0989
93.2144
90.5043
88.0204
85.7931
83.8344
82.1439
80.7138
79.5338
78.5939
77.8841
77.3926
77.1024
76.988
77.014
77.1353
77.3021
77.4663
77.5897
77.6532
77.6624
77.6512
77.681
77.8354
78.2109
78.9054
80.0047
81.5695
83.6248
86.1521
89.0874
92.323
95.7155
99.0958
102.283
105.097
107.372
108.966
109.771
109.715
108.768
106.941
104.286
100.891
96.876
92.3826
87.5658
82.583
77.5845
72.7074
68.0706
63.7751
59.9044
56.5269
53.6982
51.4615
49.8477
48.8738
48.5421
48.8385
49.7322
51.1764
53.109
55.4543
58.1254
61.0257
64.0519
67.0963
70.0508
72.81
75.2756
77.36
78.9898
80.1081
80.6765
43.3317
43.5341
43.9562
44.6358
45.6398
47.0726
49.0817
51.8559
55.6133
60.5761
66.9343
74.8011
84.1706
94.8878
106.64
118.979
131.362
143.223
154.031
163.352
170.874
176.421
179.934
181.453
181.088
179.009
175.441
170.674
165.066
159.037
153.053
147.582
143.048
139.777
137.96
137.632
138.685
140.895
143.964
147.574
151.42
155.243
158.847
162.097
164.916
167.271
169.157
170.581
171.543
172.025
171.977
171.316
169.924
167.659
164.374
159.941
154.281
147.391
139.359
130.368
120.689
110.651
100.607
90.8988
81.8235
73.6132
66.4243
60.3378
55.3679
51.4733
48.5706
46.5465
45.2694
44.6009
44.4068
44.5671
44.9837
45.5836
46.3176
47.1544
48.0733
49.0568
50.0866
51.1421
52.2024
53.2483
54.2638
55.2356
56.1508
56.9942
57.7472
58.3893
58.9038
59.286
59.5525
59.7474
59.943
60.2337
60.7203
61.4896
62.5904
64.0134
65.6783
67.4351
69.0808
70.392
71.1682
71.2774
70.6926
69.5085
67.9317
66.2452
64.7535
63.7229
63.3288
63.6254
64.5428
65.9136
67.5208
69.1542
70.6588
71.9616
73.0696
74.0416
74.947
75.8259
76.667
77.4093
77.965
78.2549
78.2413
77.9446
77.4372
76.816
76.1618
75.5026
74.7953
73.9357
72.795
71.2723
69.3422
67.0811
64.6615
62.3154
60.2793
58.7385
57.786
57.4082
57.4976
57.8868
58.395
58.8722
59.2323
59.4675
59.6426
59.871
60.2806
60.9778
62.0182
63.392
65.0238
66.787
68.5255
70.0784
71.2989
72.0695
72.3102
71.9859
71.1116
69.7571
68.0475
66.1552
64.2839
62.643
61.4198
60.7545
60.7247
61.3417
62.5599
64.2934
66.4363
68.8807
71.5289
74.2992
77.1263
79.9578
82.7509
85.4692
88.0818
90.5636
92.8965
95.0698
97.0802
98.9299
100.626
102.176
103.589
104.875
106.041
107.097
108.051
108.915
109.7
110.422
111.094
111.731
112.342
112.934
113.508
114.059
114.58
115.06
115.491
115.868
116.191
116.465
116.701
116.911
117.11
117.311
117.523
117.753
118.005
118.278
118.569
118.876
119.191
119.508
119.82
120.119
120.396
120.649
120.875
121.077
121.264
121.45
121.65
121.882
122.158
122.486
122.865
123.287
123.733
124.18
124.602
124.974
125.278
125.505
125.657
125.746
125.797
125.838
125.896
125.998
126.158
126.382
126.668
127.006
127.381
127.78
128.19
128.602
129.011
129.414
129.813
130.213
130.62
131.039
131.474
131.925
132.387
132.852
133.308
133.74
134.135
134.483
134.775
135.01
135.192
135.33
135.436
135.525
135.612
135.71
135.83
135.977
136.151
136.351
136.573
136.814
137.071
137.342
137.627
137.922
138.223
138.52
138.802
139.058
139.278
139.456
139.59
139.686
139.751
139.797
139.835
139.877
139.936
140.021
140.142
140.306
140.523
140.796
141.13
141.526
141.983
142.495
143.056
143.656
144.284
144.931
145.59
146.258
146.937
147.637
148.368
149.142
149.964
150.838
151.758
152.714
153.69
154.673
155.652
156.622
157.587
158.557
159.546
160.572
161.65
162.791
164.003
165.29
166.651
168.084
169.584
171.145
172.757
174.409
176.086
177.771
179.447
181.097
182.71
184.274
185.785
187.239
188.638
189.986
191.288
192.551
193.78
194.978
196.148
197.287
198.389
199.447
200.444
201.361
202.166
202.808
203.202
203.248
202.81
201.709
199.732
196.656
192.281
186.466
179.176
170.516
160.748
150.27
139.581
129.207
119.634
111.242
104.267
98.793
94.7694
92.0501
90.4362
89.7164
89.6953
90.2091
91.129
92.3578
93.8219
95.4641
97.2367
99.0985
101.012
102.941
104.853
106.713
108.484
110.128
111.604
112.871
113.896
114.652
115.13
115.338
115.304
115.076
114.712
114.282
113.855
113.494
113.251
113.163
113.246
113.495
113.882
114.356
114.848
115.274
115.542
115.564
115.258
114.562
113.438
111.876
109.896
107.548
104.905
102.061
99.118
96.1766
93.3285
90.6484
88.1894
85.9835
84.0441
82.3713
80.9569
79.7898
78.8581
78.1501
77.6523
77.3466
77.2073
77.1995
77.2798
77.4005
77.5158
77.5903
77.6067
77.5722
77.5213
77.5152
77.6364
77.9803
78.6432
79.7101
81.2412
83.2621
85.756
88.6611
91.8727
95.2504
98.6277
101.826
104.666
106.982
108.632
109.506
109.529
108.67
106.936
104.377
101.077
97.1532
92.7441
88.0015
83.0801
78.1285
73.2821
68.6598
64.3626
60.4752
57.0675
54.1968
51.9081
50.234
49.193
48.7886
49.0077
49.8205
51.1808
53.0276
55.2865
57.8722
60.6901
63.6389
66.6134
69.507
72.2156
74.6412
76.6958
78.3048
79.4101
79.9716
43.5461
43.7523
44.1822
44.8738
45.8943
47.348
49.3815
52.1821
55.9655
60.9509
67.3246
75.1967
84.5592
95.256
106.976
119.271
131.605
143.415
154.173
163.447
170.927
176.437
179.916
181.402
181.005
178.893
175.293
170.498
164.866
158.822
152.831
147.363
142.841
139.589
137.796
137.496
138.578
140.814
143.909
147.54
151.403
155.239
158.851
162.105
164.926
167.281
169.167
170.591
171.555
172.042
172.003
171.356
169.982
167.74
164.484
160.087
154.467
147.619
139.628
130.675
121.024
111.003
100.964
91.248
82.1554
73.9217
66.7064
60.5933
55.5976
51.6778
48.7493
46.6971
45.389
44.6865
44.4567
44.5814
44.9642
45.5334
46.2401
47.0525
47.9489
48.9106
49.9184
50.9518
51.9901
53.0152
54.0123
54.9692
55.8737
56.7109
57.462
58.1057
58.6243
59.0114
59.2814
59.4752
59.6615
59.9304
60.3794
61.0942
62.1259
63.4718
65.0623
66.7598
68.3734
69.6875
70.5037
70.6848
70.1933
69.1102
67.6292
66.0236
64.5944
63.6094
63.2504
63.5799
64.5364
65.9591
67.6341
69.3504
70.9484
72.3468
73.5412
74.5778
75.5133
76.3778
77.1549
77.7848
78.1886
78.3027
78.1086
77.6463
77.0046
76.2895
75.584
74.9118
74.2219
73.4017
72.3165
70.8623
69.013
66.8454
64.5314
62.3
60.3824
58.9566
58.1082
57.817
57.9718
58.4055
58.9411
59.4353
59.8102
60.0655
60.2704
60.5383
60.9923
61.7296
62.7945
64.1655
65.758
67.4395
69.0529
70.4399
71.4609
72.0077
72.0124
71.4531
70.3585
68.811
66.9452
64.9393
62.9975
61.3253
60.1028
59.4613
59.4699
60.1332
61.4015
63.187
65.3838
67.8844
70.5918
73.4245
76.3163
79.2138
82.0727
84.8551
87.5288
90.0677
92.4529
94.6732
96.725
98.6106
100.337
101.911
103.345
104.645
105.823
106.886
107.846
108.713
109.502
110.227
110.905
111.548
112.169
112.772
113.358
113.923
114.457
114.95
115.394
115.783
116.116
116.4
116.645
116.864
117.072
117.281
117.5
117.738
117.995
118.274
118.57
118.88
119.197
119.514
119.824
120.119
120.394
120.643
120.866
121.067
121.256
121.445
121.65
121.887
122.169
122.502
122.885
123.307
123.752
124.197
124.617
124.988
125.293
125.525
125.684
125.784
125.849
125.904
125.978
126.093
126.264
126.496
126.786
127.123
127.494
127.886
128.287
128.688
129.084
129.475
129.864
130.255
130.653
131.066
131.496
131.942
132.402
132.865
133.32
133.753
134.15
134.501
134.798
135.04
135.23
135.377
135.491
135.587
135.679
135.78
135.9
136.044
136.213
136.406
136.62
136.851
137.098
137.359
137.632
137.914
138.2
138.482
138.749
138.989
139.195
139.36
139.484
139.573
139.632
139.674
139.71
139.752
139.811
139.898
140.022
140.192
140.414
140.693
141.034
141.436
141.896
142.411
142.971
143.568
144.193
144.835
145.491
146.158
146.841
147.549
148.292
149.081
149.921
150.815
151.754
152.729
153.723
154.723
155.719
156.705
157.686
158.672
159.679
160.722
161.816
162.973
164.199
165.497
166.866
168.303
169.803
171.36
172.965
174.607
176.273
177.946
179.612
181.254
182.862
184.425
185.937
187.397
188.803
190.16
191.472
192.743
193.979
195.182
196.353
197.49
198.588
199.637
200.623
201.524
202.308
202.923
203.278
203.271
202.765
201.573
199.481
196.269
191.738
185.757
178.303
169.498
159.617
149.075
138.377
128.05
118.577
110.326
103.519
98.2253
94.3806
91.8277
90.3604
89.7631
89.8391
90.4252
91.3948
92.6535
94.1307
95.7719
97.5318
99.3707
101.252
103.141
105.003
106.806
108.515
110.092
111.5
112.702
113.666
114.37
114.804
114.978
114.918
114.67
114.291
113.846
113.401
113.016
112.743
112.616
112.652
112.849
113.181
113.603
114.051
114.446
114.704
114.739
114.472
113.841
112.805
111.349
109.487
107.262
104.74
102.008
99.1651
96.309
93.5318
90.9095
88.4984
86.3334
84.4307
82.7914
81.4072
80.265
79.3501
78.6473
78.1397
77.8072
77.6231
77.5536
77.5579
77.5922
77.6155
77.5969
77.5234
77.4049
77.2772
77.2011
77.2576
77.5393
78.1401
79.1427
80.6069
82.5592
84.9859
87.8297
90.9917
94.3373
97.7056
100.922
103.81
106.204
107.961
108.968
109.146
108.458
106.907
104.535
101.422
97.6779
93.4348
88.8388
84.0394
79.1812
74.3973
69.8055
65.5077
61.5903
58.1262
55.1758
52.7876
50.9975
49.8269
49.2818
49.3511
50.0066
51.2039
52.8838
54.9745
57.3935
60.05
62.8472
65.6837
68.4566
71.0642
73.4094
75.4034
76.9699
78.0485
78.5972
43.8601
44.0721
44.5138
45.2237
46.2688
47.753
49.8216
52.6594
56.4781
61.4924
67.8838
75.7577
85.1031
95.7631
107.428
119.655
131.912
143.642
154.324
163.528
170.946
176.4
179.828
181.264
180.817
178.657
175.012
170.176
164.512
158.449
152.454
146.997
142.499
139.283
137.533
137.28
138.408
140.689
143.823
147.487
151.377
155.232
158.857
162.119
164.943
167.299
169.185
170.611
171.579
172.073
172.047
171.418
170.068
167.859
164.643
160.292
154.726
147.935
139.999
131.094
121.481
111.482
101.448
91.7221
82.6069
74.3426
67.0934
60.9461
55.9171
51.9641
49.0005
46.9095
45.5574
44.8064
44.5251
44.598
44.9315
45.4557
46.1224
46.8994
47.7636
48.6947
49.6724
50.6756
51.684
52.6806
53.6519
54.5871
55.4753
56.302
57.0485
57.693
58.2166
58.6111
58.8875
59.0823
59.2583
59.4995
59.8982
60.5382
61.4737
62.7114
64.1963
65.8091
67.3752
68.691
69.5606
69.8403
69.4777
68.5349
67.1872
65.6948
64.3531
63.4322
63.1226
63.4986
64.5107
66.0071
67.7783
69.6123
71.3422
72.8744
74.1885
75.3122
76.2848
77.1233
77.8048
78.2733
78.4635
78.3344
77.8947
77.2113
76.3934
75.5584
74.7901
74.1046
73.4395
72.6711
71.6571
70.291
68.5475
66.5052
64.3357
62.2642
60.514
59.2522
58.553
58.387
58.6375
59.1375
59.7154
60.2377
60.6378
60.9256
61.1756
61.5006
62.0158
62.805
63.8961
65.2518
66.7748
68.3258
69.7473
70.8871
71.6165
71.8422
71.5143
70.6296
69.2357
67.4311
65.3626
63.214
61.1886
59.4848
58.2711
57.6662
57.7273
58.4505
59.781
61.6296
63.8911
66.4599
69.2405
72.1518
75.1275
78.1124
81.0603
83.9311
86.6904
89.3105
91.7712
94.0604
96.1738
98.1133
99.8854
101.499
102.963
104.289
105.485
106.562
107.531
108.406
109.203
109.936
110.623
111.279
111.914
112.535
113.14
113.725
114.279
114.792
115.255
115.66
116.009
116.308
116.566
116.798
117.017
117.236
117.466
117.713
117.979
118.265
118.567
118.881
119.2
119.517
119.824
120.116
120.386
120.631
120.851
121.053
121.244
121.438
121.651
121.898
122.188
122.528
122.915
123.338
123.782
124.223
124.639
125.009
125.316
125.553
125.724
125.84
125.924
126
126.095
126.228
126.414
126.656
126.95
127.286
127.651
128.033
128.42
128.806
129.186
129.562
129.936
130.314
130.701
131.104
131.527
131.968
132.423
132.883
133.337
133.77
134.17
134.525
134.829
135.08
135.281
135.439
135.565
135.671
135.77
135.876
135.995
136.135
136.297
136.479
136.681
136.899
137.131
137.376
137.631
137.894
138.16
138.419
138.662
138.88
139.065
139.213
139.323
139.401
139.454
139.492
139.526
139.568
139.63
139.72
139.85
140.026
140.257
140.546
140.896
141.306
141.772
142.289
142.849
143.442
144.061
144.699
145.351
146.018
146.707
147.426
148.186
148.996
149.862
150.782
151.749
152.751
153.771
154.795
155.814
156.824
157.829
158.84
159.871
160.938
162.057
163.236
164.482
165.796
167.175
168.617
170.117
171.668
173.262
174.89
176.54
178.197
179.848
181.48
183.08
184.641
186.157
187.624
189.041
190.411
191.736
193.019
194.264
195.473
196.645
197.78
198.871
199.908
200.877
201.755
202.509
203.083
203.382
203.298
202.69
201.365
199.108
195.698
190.943
184.725
177.04
168.032
158
147.374
136.671
126.422
117.097
109.052
102.487
97.4496
93.8573
91.5376
90.2743
89.8465
90.056
90.7408
91.7774
93.0753
94.5683
96.2056
97.9454
99.75
101.584
103.415
105.208
106.932
108.553
110.038
111.352
112.463
113.344
113.974
114.347
114.473
114.378
114.103
113.702
113.235
112.765
112.348
112.031
111.849
111.819
111.941
112.194
112.539
112.921
113.27
113.508
113.556
113.338
112.792
111.875
110.565
108.866
106.812
104.46
101.888
99.1871
96.4529
93.7766
91.2364
88.8924
86.7842
84.9317
83.3383
81.996
80.8896
80.0006
79.309
78.7934
78.4301
78.1911
78.0429
77.9479
77.8674
77.7663
77.6204
77.4222
77.1858
76.9491
76.7728
76.7356
76.9268
77.4366
78.3447
79.7099
81.5601
83.8857
86.636
89.7204
93.0131
96.3614
99.5969
102.547
105.048
106.955
108.15
108.549
108.107
106.819
104.719
101.877
98.3943
94.3932
90.0116
85.3919
80.6728
75.984
71.442
67.1493
63.1949
59.6552
56.5955
54.0689
52.1159
50.7624
50.0177
49.874
50.3056
51.2704
52.712
54.5617
56.7414
59.1656
61.743
64.3784
66.9738
69.4313
71.6553
73.5569
75.0579
76.0949
76.6237
44.2651
44.4852
44.9434
45.6779
46.7557
48.2795
50.3924
53.2754
57.1353
62.1805
68.586
76.4522
85.7645
96.3655
107.949
120.077
132.226
143.847
154.425
163.535
170.869
176.248
179.606
180.976
180.464
178.239
174.534
169.647
163.948
157.867
151.876
146.445
141.992
138.835
137.153
136.97
138.168
140.513
143.703
147.414
151.34
155.223
158.866
162.139
164.969
167.327
169.215
170.644
171.618
172.123
172.112
171.504
170.184
168.012
164.842
160.546
155.041
148.313
140.439
131.589
122.017
112.041
102.012
92.2735
83.1331
74.8356
67.5499
61.3659
56.3006
52.3105
49.3062
47.1685
45.7625
44.9509
44.6047
44.6119
44.8824
45.3489
45.9645
46.6966
47.5207
48.4149
49.3571
50.3254
51.2993
52.2625
53.2028
54.1108
54.9769
55.7879
56.5258
57.1689
57.6976
58.1016
58.3882
58.5878
58.7558
58.9675
59.3086
59.8598
60.6793
61.7849
63.1399
64.6466
66.1514
67.4648
68.3948
68.7901
68.5806
67.8056
66.6183
65.2629
64.0275
63.1851
62.9363
63.3701
64.4512
66.039
67.9293
69.908
71.799
73.4928
74.9484
76.1711
77.1795
77.9755
78.5312
78.7972
78.7276
78.3099
77.586
76.6533
75.6434
74.6836
73.8551
73.1626
72.5288
71.8171
70.8787
69.6063
67.9787
66.0786
64.0788
62.1997
60.6545
59.5963
59.0841
59.0763
59.4492
60.0359
60.6718
61.2355
61.674
62.0086
62.3195
62.7168
63.3049
64.1499
65.2596
66.5772
67.9917
69.3574
70.519
71.3343
71.6905
71.5153
70.7813
69.5091
67.768
65.6744
63.3866
61.0922
58.9899
57.2668
56.076
55.5198
55.6415
56.4278
57.8195
59.7272
62.0483
64.681
67.5327
70.5243
73.5891
76.6707
79.7202
82.6948
85.5574
88.2777
90.8334
93.211
95.4049
97.4163
99.2511
100.918
102.427
103.788
105.012
106.112
107.099
107.988
108.798
109.546
110.249
110.924
111.582
112.227
112.859
113.471
114.053
114.591
115.077
115.505
115.874
116.191
116.466
116.713
116.947
117.18
117.421
117.679
117.955
118.249
118.557
118.874
119.194
119.51
119.815
120.103
120.368
120.61
120.829
121.033
121.229
121.432
121.656
121.914
122.215
122.563
122.955
123.38
123.821
124.258
124.67
125.037
125.346
125.591
125.775
125.911
126.018
126.119
126.239
126.394
126.597
126.85
127.148
127.482
127.839
128.208
128.579
128.947
129.309
129.667
130.025
130.387
130.762
131.155
131.568
132.002
132.451
132.907
133.359
133.791
134.192
134.552
134.864
135.125
135.338
135.509
135.649
135.766
135.875
135.985
136.104
136.239
136.392
136.562
136.748
136.948
137.161
137.385
137.618
137.855
138.093
138.323
138.537
138.726
138.885
139.011
139.105
139.171
139.216
139.25
139.285
139.329
139.395
139.493
139.631
139.818
140.06
140.361
140.722
141.142
141.615
142.135
142.694
143.283
143.897
144.529
145.178
145.847
146.543
147.277
148.058
148.895
149.791
150.744
151.744
152.778
153.83
154.885
155.934
156.975
158.01
159.052
160.114
161.213
162.361
163.568
164.838
166.17
167.563
169.011
170.51
172.053
173.634
175.245
176.875
178.513
180.147
181.765
183.358
184.917
186.437
187.912
189.343
190.727
192.067
193.364
194.62
195.835
197.01
198.141
199.223
200.245
201.193
202.042
202.756
203.278
203.504
203.32
202.58
201.085
198.617
194.956
189.92
183.407
175.439
166.187
155.976
145.261
134.568
124.429
115.302
107.52
101.259
96.5397
93.2566
91.22
90.2022
89.9766
90.3439
91.144
92.2574
93.5985
95.1061
96.7344
98.4454
100.205
101.979
103.737
105.445
107.073
108.589
109.963
111.166
112.169
112.949
113.491
113.791
113.86
113.721
113.414
112.987
112.495
111.996
111.539
111.171
110.921
110.81
110.838
110.991
111.239
111.534
111.818
112.022
112.074
111.905
111.454
110.672
109.532
108.028
106.181
104.036
101.66
99.1348
96.5519
94.001
91.5621
89.3
87.2597
85.4663
83.9269
82.6346
81.5726
80.7185
80.0471
79.5314
79.1428
78.8505
78.621
78.419
78.2109
77.9683
77.6744
77.3285
76.9499
76.5796
76.2784
76.1228
76.1984
76.5908
77.3762
78.612
80.3276
82.5184
85.1419
88.1179
91.3321
94.6425
97.8896
100.907
103.532
105.619
107.045
107.719
107.586
106.631
104.876
102.379
99.2286
95.5373
91.4318
87.0452
82.5094
77.9495
73.4801
69.2043
65.2136
61.5891
58.4009
55.7083
53.5574
51.9795
50.9889
50.5815
50.7351
51.411
52.5557
54.1046
55.9845
58.1162
60.4152
62.7935
65.1597
67.4206
69.4836
71.2603
72.671
73.6501
74.1507
44.7515
44.9824
45.462
46.2283
47.3473
48.9197
51.0851
54.0194
57.9229
62.9965
69.4077
77.2506
86.5074
97.0214
108.49
120.485
132.491
143.97
154.414
163.403
170.63
175.913
179.183
180.469
179.874
177.57
173.793
168.849
163.113
157.023
151.051
145.668
141.287
138.22
136.638
136.556
137.85
140.282
143.546
147.318
151.292
155.21
158.877
162.166
165.005
167.369
169.261
170.695
171.677
172.194
172.201
171.618
170.329
168.196
165.075
160.835
155.393
148.731
140.919
132.122
122.589
112.636
102.61
92.8582
83.6926
75.363
68.0425
61.8235
56.7228
52.6948
49.6471
47.4575
45.9902
45.1087
44.6871
44.6176
44.814
45.2127
45.7682
46.4482
47.2269
48.0805
48.9852
49.9173
50.8558
51.7841
52.6906
53.5675
54.4065
55.1964
55.9208
56.5594
57.0924
57.5078
57.8086
58.0181
58.1821
58.3659
58.6467
59.1014
59.7922
60.7495
61.9571
63.3416
64.7728
66.0772
67.0679
67.5854
67.5408
66.9486
65.9377
64.7341
63.6178
62.8643
62.6854
63.1857
64.3462
66.0385
68.0637
70.2051
72.2752
74.1456
75.7512
77.0724
78.1053
78.8375
79.2387
79.2709
78.9127
78.1856
77.1678
75.9881
74.7981
73.7308
72.8595
72.1729
71.5759
70.9192
70.0494
68.8628
67.3465
65.5911
63.772
62.1048
60.7902
59.9639
59.6669
59.8426
60.3593
61.0505
61.76
62.38
62.8727
63.2708
63.659
64.142
64.8096
65.7069
66.8182
68.0662
69.3262
70.4486
71.2843
71.7059
71.6225
70.9875
69.8012
68.1103
66.0071
63.625
61.1309
58.7118
56.5571
54.8376
53.687
53.1889
53.3716
54.2128
55.6504
57.5973
59.9563
62.6315
65.5356
68.5925
71.7365
74.9101
78.0617
81.1452
84.12
86.9526
89.6179
92.0998
94.3909
96.491
98.4049
100.141
101.709
103.119
104.384
105.517
106.532
107.446
108.279
109.05
109.779
110.483
111.172
111.851
112.518
113.165
113.78
114.35
114.865
115.32
115.713
116.052
116.348
116.613
116.864
117.112
117.367
117.636
117.921
118.222
118.535
118.855
119.176
119.49
119.791
120.074
120.337
120.577
120.797
121.006
121.211
121.426
121.665
121.937
122.251
122.609
123.007
123.433
123.871
124.303
124.71
125.074
125.385
125.639
125.838
125.994
126.127
126.256
126.402
126.581
126.802
127.065
127.367
127.698
128.045
128.4
128.755
129.104
129.447
129.787
130.127
130.474
130.836
131.216
131.62
132.045
132.487
132.938
133.386
133.817
134.219
134.582
134.9
135.171
135.396
135.581
135.734
135.864
135.982
136.096
136.215
136.344
136.486
136.641
136.809
136.988
137.178
137.377
137.582
137.789
137.993
138.188
138.366
138.522
138.652
138.753
138.828
138.881
138.92
138.952
138.989
139.039
139.113
139.221
139.371
139.572
139.829
140.145
140.519
140.949
141.43
141.953
142.512
143.098
143.707
144.335
144.983
145.656
146.363
147.115
147.92
148.787
149.717
150.705
151.741
152.811
153.898
154.988
156.073
157.148
158.22
159.299
160.399
161.534
162.717
163.955
165.252
166.606
168.013
169.467
170.964
172.499
174.066
175.657
177.266
178.883
180.498
182.102
183.686
185.243
186.767
188.252
189.696
191.097
192.453
193.764
195.031
196.254
197.431
198.558
199.629
200.634
201.557
202.371
203.038
203.496
203.633
203.33
202.431
200.733
198.014
194.058
188.695
181.845
173.558
164.037
153.64
142.842
132.183
122.19
113.306
105.837
99.9286
95.5723
92.6371
90.9147
90.1662
90.16
90.6963
91.6179
92.81
94.1924
95.7097
97.3213
98.9941
100.697
102.4
104.073
105.684
107.205
108.606
109.86
110.942
111.828
112.5
112.948
113.169
113.176
112.99
112.648
112.193
111.675
111.144
110.647
110.221
109.898
109.695
109.617
109.656
109.788
109.978
110.177
110.328
110.37
110.239
109.876
109.231
108.269
106.974
105.353
103.437
101.28
98.9552
96.5453
94.1377
91.8142
89.6436
87.6775
85.9472
84.4651
83.2267
82.215
81.4044
80.7644
80.262
79.8627
79.5315
79.2331
78.9335
78.6029
78.2194
77.7733
77.2713
76.7387
76.2199
75.7768
75.484
75.4231
75.675
76.3122
77.3901
78.9399
80.9623
83.4245
86.2584
89.3632
92.6107
95.8524
98.9296
101.684
103.968
105.653
106.641
106.865
106.297
104.946
102.854
100.098
96.7744
92.9988
88.8938
84.5832
80.1867
75.8164
71.5755
67.5582
63.8497
60.5259
57.6524
55.2819
53.452
52.1828
51.4754
51.3118
51.6569
52.4613
53.6645
55.1987
56.9911
58.9649
61.0398
63.1321
65.1548
67.0193
68.6391
69.9344
70.8382
71.3018
45.3091
45.5539
46.061
46.8673
48.0369
49.6675
51.8935
54.8844
58.832
63.9284
70.3325
78.1319
87.3059
97.6992
109.016
120.837
132.662
143.961
154.238
163.077
170.17
175.334
178.495
179.677
178.982
176.586
172.729
167.724
161.957
155.871
149.941
144.635
140.362
137.421
135.975
136.029
137.449
139.992
143.351
147.199
151.231
155.192
158.89
162.198
165.05
167.423
169.323
170.765
171.758
172.289
172.315
171.757
170.5
168.408
165.334
161.151
155.769
149.17
141.417
132.67
123.172
113.237
103.212
93.4471
84.2579
75.8992
68.5478
62.2972
57.1636
53.0982
50.0053
47.7603
46.2262
45.2683
44.7641
44.6102
44.7253
45.0491
45.5386
46.162
46.8926
47.705
48.5731
49.4712
50.3766
51.2717
52.1447
52.9885
53.7968
54.5608
55.267
55.8975
56.4335
56.8617
57.1802
57.4044
57.5692
57.7282
57.9488
58.3039
58.8596
59.6596
60.7091
61.9604
63.3077
64.5948
65.6403
66.2773
66.3982
65.9923
65.1636
64.1189
63.1293
62.4721
62.37
62.9438
64.191
65.9957
68.1646
70.4769
72.7317
74.7798
76.5299
77.9357
78.972
79.6144
79.8347
79.6117
78.9541
77.9208
76.6271
75.2307
73.8978
72.76
71.8762
71.2139
70.6586
70.0496
69.2329
68.114
66.6935
65.0738
63.4349
61.9872
60.9169
60.3395
60.275
60.6502
61.3252
62.1344
62.9316
63.6239
64.1888
64.6695
65.1522
65.733
66.4831
67.4233
68.5128
69.654
70.7107
71.5333
71.9838
71.9554
71.3844
70.2547
68.597
66.4859
64.0354
61.3927
58.7285
56.2237
54.0524
52.3645
51.2711
50.8352
51.0705
51.9472
53.4027
55.3551
57.7155
60.3967
63.3191
66.4114
69.61
72.8568
76.0981
79.284
82.3702
85.3189
88.1015
90.6986
93.1
95.3034
97.3119
99.1326
100.775
102.25
103.57
104.749
105.805
106.757
107.626
108.434
109.202
109.947
110.679
111.402
112.114
112.804
113.46
114.068
114.617
115.103
115.525
115.89
116.21
116.498
116.768
117.033
117.302
117.583
117.876
118.183
118.499
118.82
119.139
119.45
119.747
120.027
120.287
120.527
120.753
120.97
121.189
121.421
121.678
121.969
122.299
122.668
123.072
123.499
123.934
124.36
124.76
125.121
125.434
125.695
125.91
126.088
126.247
126.404
126.577
126.779
127.017
127.291
127.596
127.922
128.259
128.6
128.937
129.268
129.594
129.916
130.24
130.573
130.922
131.291
131.684
132.1
132.534
132.979
133.421
133.849
134.25
134.615
134.938
135.217
135.452
135.649
135.814
135.954
136.08
136.198
136.315
136.437
136.566
136.704
136.852
137.008
137.172
137.341
137.514
137.685
137.851
138.006
138.145
138.265
138.362
138.437
138.492
138.534
138.567
138.6
138.642
138.701
138.788
138.91
139.077
139.295
139.57
139.903
140.292
140.734
141.223
141.751
142.31
142.895
143.501
144.127
144.778
145.459
146.18
146.952
147.784
148.682
149.646
150.67
151.743
152.849
153.973
155.101
156.224
157.339
158.452
159.572
160.714
161.889
163.111
164.383
165.709
167.086
168.507
169.969
171.465
172.991
174.542
176.114
177.701
179.296
180.892
182.482
184.058
185.613
187.141
188.636
190.093
191.509
192.88
194.206
195.484
196.714
197.893
199.015
200.075
201.061
201.955
202.73
203.343
203.727
203.762
203.319
202.238
200.308
197.306
193.021
187.298
180.082
171.456
161.66
151.081
140.222
129.628
119.819
111.219
104.103
98.5823
94.6167
92.0493
90.654
90.1818
90.3972
91.1014
92.141
93.4063
94.823
96.3415
97.9269
99.551
101.187
102.809
104.387
105.894
107.302
108.585
109.717
110.677
111.446
112.012
112.365
112.508
112.453
112.222
111.846
111.365
110.823
110.263
109.725
109.244
108.846
108.55
108.36
108.276
108.28
108.348
108.444
108.522
108.531
108.417
108.122
107.598
106.803
105.712
104.318
102.639
100.713
98.6
96.376
94.1233
91.9238
89.8502
87.9605
86.2933
84.8674
83.6828
82.724
81.9637
81.3672
80.8953
80.5072
80.1621
79.8212
79.4498
79.0201
78.5146
77.9303
77.2803
76.5961
75.9262
75.3336
74.8918
74.6788
74.7713
75.2375
76.1312
77.4852
79.3064
81.5718
84.2273
87.1875
90.3398
93.5496
96.6682
99.5424
102.025
103.982
105.307
105.92
105.778
104.874
103.235
100.919
98.0111
94.6108
90.8298
86.7833
82.5847
78.343
74.1609
70.1347
66.3533
62.8983
59.8416
57.2431
55.1475
53.5815
52.5523
52.0471
52.0353
52.4715
53.3
54.4582
55.8796
57.4949
59.2321
61.0154
62.7651
64.3981
65.8316
66.9873
67.7987
68.2165
45.9273
46.19
46.7318
47.5881
48.8197
50.5195
52.8155
55.8684
59.8603
64.9726
71.3549
79.088
88.1486
98.3845
109.508
121.113
132.712
143.791
153.862
162.516
169.446
174.464
177.492
178.549
177.739
175.238
171.295
166.233
160.445
154.383
148.523
143.33
139.203
136.431
135.16
135.386
136.963
139.644
143.117
147.055
151.157
155.168
158.902
162.235
165.104
167.489
169.399
170.852
171.857
172.405
172.451
171.919
170.695
168.642
165.615
161.486
156.163
149.623
141.925
133.223
123.757
113.837
103.812
94.0335
84.8224
76.4374
69.0579
62.7781
57.612
53.5082
50.3675
48.0631
46.4581
45.4195
44.8285
44.5865
44.6168
44.8628
45.284
45.8495
46.5322
47.3053
48.1405
49.0094
49.8868
50.753
51.5951
52.4063
53.1821
53.9169
54.6011
55.2202
55.7576
56.1988
56.5374
56.7798
56.9489
57.0858
57.2476
57.5029
57.9216
58.5613
59.4484
60.5609
61.8169
63.0775
64.1678
64.9144
65.1923